 vasp.6.3.0 20Jan22 (build Nov 21 2023 21:33:06) complex                        
  
 executed on             LinuxIFC date 2025.02.25  00:11:11
 running on   32 total cores
 distrk:  each k-point on   32 cores,    1 groups
 distr:  one band on NCORE=  16 cores,    2 groups


--------------------------------------------------------------------------------------------------------


 INCAR:
   ENCUT = 400.0
   ALGO = FAST
   NELM = 100
   EDIFF = 1E-4
   AMIX = 0.20
   BMIX = 0.0010
   AMIX_MAG = 0.80
   BMIX_MAG = 0.0010
   PREC = Accurate
   ISPIN = 2
   ADDGRID = .TRUE.
   LASPH = .TRUE.
   ISYM = 0
   LREAL = AUTO
   ISMEAR = 1
   SIGMA = 0.20
   NSW = 100
   EDIFFG = -0.05
   IBRION = 5
   POTIM = 0.02
   NFREE = 2
   LORBIT = 11
   LWAVE = .TRUE.
   IVDW = 12
   NCORE = 16
   LSOL = .TRUE.

 POTCAR:    PAW_PBE H 15Jun2001                   
 POTCAR:    PAW_PBE C 08Apr2002                   
 POTCAR:    PAW_PBE N 08Apr2002                   
 POTCAR:    PAW_PBE O 08Apr2002                   
 POTCAR:    PAW_PBE Cu 22Jun2005                  
 -----------------------------------------------------------------------------
|                                                                             |
|           W    W    AA    RRRRR   N    N  II  N    N   GGGG   !!!           |
|           W    W   A  A   R    R  NN   N  II  NN   N  G    G  !!!           |
|           W    W  A    A  R    R  N N  N  II  N N  N  G       !!!           |
|           W WW W  AAAAAA  RRRRR   N  N N  II  N  N N  G  GGG   !            |
|           WW  WW  A    A  R   R   N   NN  II  N   NN  G    G                |
|           W    W  A    A  R    R  N    N  II  N    N   GGGG   !!!           |
|                                                                             |
|     You use a magnetic or noncollinear calculation, but did not specify     |
|     the initial magnetic moment with the MAGMOM tag. Note that a            |
|     default of 1 will be used for all atoms. This ferromagnetic setup       |
|     may break the symmetry of the crystal, in particular it may rule        |
|     out finding an antiferromagnetic solution. Thence, we recommend         |
|     setting the initial magnetic moment manually or verifying carefully     |
|     that this magnetic setup is desired.                                    |
|                                                                             |
 -----------------------------------------------------------------------------

 -----------------------------------------------------------------------------
|                                                                             |
|           W    W    AA    RRRRR   N    N  II  N    N   GGGG   !!!           |
|           W    W   A  A   R    R  NN   N  II  NN   N  G    G  !!!           |
|           W    W  A    A  R    R  N N  N  II  N N  N  G       !!!           |
|           W WW W  AAAAAA  RRRRR   N  N N  II  N  N N  G  GGG   !            |
|           WW  WW  A    A  R   R   N   NN  II  N   NN  G    G                |
|           W    W  A    A  R    R  N    N  II  N    N   GGGG   !!!           |
|                                                                             |
|     For optimal performance we recommend to set                             |
|       NCORE = 2 up to number-of-cores-per-socket                            |
|     NCORE specifies how many cores store one orbital (NPAR=cpu/NCORE).      |
|     This setting can greatly improve the performance of VASP for DFT.       |
|     The default, NCORE=1 might be grossly inefficient on modern             |
|     multi-core architectures or massively parallel machines. Do your        |
|     own testing! More info at https://www.vasp.at/wiki/index.php/NCORE      |
|     Unfortunately you need to use the default for GW and RPA                |
|     calculations (for HF NCORE is supported but not extensively tested      |
|     yet).                                                                   |
|                                                                             |
 -----------------------------------------------------------------------------

 POTCAR:    PAW_PBE H 15Jun2001                   
   VRHFIN =H: ultrasoft test                                                                        
   LEXCH  = PE                                                                                      
   EATOM  =    12.4884 eV,    0.9179 Ry                                                             
                                                                                                    
   TITEL  = PAW_PBE H 15Jun2001                                                                     
   LULTRA =        F    use ultrasoft PP ?                                                          
   IUNSCR =        0    unscreen: 0-lin 1-nonlin 2-no                                               
   RPACOR =    0.000    partial core radius                                                         
   POMASS =    1.000; ZVAL   =    1.000    mass and valenz                                          
   RCORE  =    1.100    outmost cutoff radius                                                       
   RWIGS  =    0.700; RWIGS  =    0.370    wigner-seitz radius (au A)                               
   ENMAX  =  250.000; ENMIN  =  200.000 eV                                                          
   RCLOC  =    0.701    cutoff for local pot                                                        
   LCOR   =        T    correct aug charges                                                         
   LPAW   =        T    paw PP                                                                      
   EAUG   =  400.000                                                                                
   RMAX   =    1.123    core radius for proj-oper                                                   
   RAUG   =    1.200    factor for augmentation sphere                                              
   RDEP   =    1.112    radius for radial grids                                                     
   RDEPT  =    0.926    core radius for aug-charge                                                  
                                                                                                    
   Atomic configuration                                                                             
    2 entries                                                                                       
     n  l   j            E        occ.                                                              
     1  0  0.50        -6.4927   1.0000                                                             
     2  1  0.50        -3.4015   0.0000                                                             
   Description                                                                                      
     l       E           TYP  RCUT    TYP  RCUT                                                     
     0     -6.4927494     23  1.100                                                                 
     0      6.8029130     23  1.100                                                                 
     1     -4.0817478     23  1.100                                                                 
  local pseudopotential read in
  atomic valenz-charges read in
  non local Contribution for L=           0  read in
    real space projection operators read in
  non local Contribution for L=           0  read in
    real space projection operators read in
  non local Contribution for L=           1  read in
    real space projection operators read in
    PAW grid and wavefunctions read in
 
   number of l-projection  operators is LMAX  =           3
   number of lm-projection operators is LMMAX =           5
 
 POTCAR:    PAW_PBE C 08Apr2002                   
   VRHFIN =C: s2p2                                                                                  
   LEXCH  = PE                                                                                      
   EATOM  =   147.1560 eV,   10.8157 Ry                                                             
                                                                                                    
   TITEL  = PAW_PBE C 08Apr2002                                                                     
   LULTRA =        F    use ultrasoft PP ?                                                          
   IUNSCR =        1    unscreen: 0-lin 1-nonlin 2-no                                               
   RPACOR =    1.200    partial core radius                                                         
   POMASS =   12.011; ZVAL   =    4.000    mass and valenz                                          
   RCORE  =    1.500    outmost cutoff radius                                                       
   RWIGS  =    1.630; RWIGS  =    0.863    wigner-seitz radius (au A)                               
   ENMAX  =  400.000; ENMIN  =  300.000 eV                                                          
   ICORE  =        2    local potential                                                             
   LCOR   =        T    correct aug charges                                                         
   LPAW   =        T    paw PP                                                                      
   EAUG   =  644.873                                                                                
   DEXC   =    0.000                                                                                
   RMAX   =    1.529    core radius for proj-oper                                                   
   RAUG   =    1.300    factor for augmentation sphere                                              
   RDEP   =    1.501    radius for radial grids                                                     
   RDEPT  =    1.300    core radius for aug-charge                                                  
                                                                                                    
   Atomic configuration                                                                             
    4 entries                                                                                       
     n  l   j            E        occ.                                                              
     1  0  0.50      -273.3789   2.0000                                                             
     2  0  0.50       -13.7508   2.0000                                                             
     2  1  0.50        -5.2854   2.0000                                                             
     3  2  1.50        -5.4423   0.0000                                                             
   Description                                                                                      
     l       E           TYP  RCUT    TYP  RCUT                                                     
     0    -13.7508458     23  1.200                                                                 
     0     -8.2022199     23  1.200                                                                 
     1     -5.2854383     23  1.500                                                                 
     1     34.0145650     23  1.500                                                                 
     2     -5.4423304      7  1.500                                                                 
  local pseudopotential read in
  partial core-charges read in
  partial kinetic energy density read in
  atomic valenz-charges read in
  non local Contribution for L=           0  read in
    real space projection operators read in
  non local Contribution for L=           0  read in
    real space projection operators read in
  non local Contribution for L=           1  read in
    real space projection operators read in
  non local Contribution for L=           1  read in
    real space projection operators read in
    PAW grid and wavefunctions read in
 
   number of l-projection  operators is LMAX  =           4
   number of lm-projection operators is LMMAX =           8
 
 POTCAR:    PAW_PBE N 08Apr2002                   
   VRHFIN =N: s2p3                                                                                  
   LEXCH  = PE                                                                                      
   EATOM  =   264.5486 eV,   19.4438 Ry                                                             
                                                                                                    
   TITEL  = PAW_PBE N 08Apr2002                                                                     
   LULTRA =        F    use ultrasoft PP ?                                                          
   IUNSCR =        1    unscreen: 0-lin 1-nonlin 2-no                                               
   RPACOR =    1.200    partial core radius                                                         
   POMASS =   14.001; ZVAL   =    5.000    mass and valenz                                          
   RCORE  =    1.500    outmost cutoff radius                                                       
   RWIGS  =    1.400; RWIGS  =    0.741    wigner-seitz radius (au A)                               
   ENMAX  =  400.000; ENMIN  =  300.000 eV                                                          
   ICORE  =        2    local potential                                                             
   LCOR   =        T    correct aug charges                                                         
   LPAW   =        T    paw PP                                                                      
   EAUG   =  627.112                                                                                
   DEXC   =    0.000                                                                                
   RMAX   =    1.529    core radius for proj-oper                                                   
   RAUG   =    1.300    factor for augmentation sphere                                              
   RDEP   =    1.514    radius for radial grids                                                     
   RDEPT  =    1.338    core radius for aug-charge                                                  
                                                                                                    
   Atomic configuration                                                                             
    4 entries                                                                                       
     n  l   j            E        occ.                                                              
     1  0  0.50      -384.7179   2.0000                                                             
     2  0  0.50       -18.5828   2.0000                                                             
     2  1  0.50        -7.0898   3.0000                                                             
     3  2  1.50        -6.8029   0.0000                                                             
   Description                                                                                      
     l       E           TYP  RCUT    TYP  RCUT                                                     
     0    -18.5828119     23  1.200                                                                 
     0    -13.5018863     23  1.200                                                                 
     1     -7.0897853     23  1.500                                                                 
     1      9.5240782     23  1.500                                                                 
     2     -6.8029130      7  1.500                                                                 
  local pseudopotential read in
  partial core-charges read in
  partial kinetic energy density read in
  atomic valenz-charges read in
  non local Contribution for L=           0  read in
    real space projection operators read in
  non local Contribution for L=           0  read in
    real space projection operators read in
  non local Contribution for L=           1  read in
    real space projection operators read in
  non local Contribution for L=           1  read in
    real space projection operators read in
    PAW grid and wavefunctions read in
 
   number of l-projection  operators is LMAX  =           4
   number of lm-projection operators is LMMAX =           8
 
 POTCAR:    PAW_PBE O 08Apr2002                   
   VRHFIN =O: s2p4                                                                                  
   LEXCH  = PE                                                                                      
   EATOM  =   432.3788 eV,   31.7789 Ry                                                             
                                                                                                    
   TITEL  = PAW_PBE O 08Apr2002                                                                     
   LULTRA =        F    use ultrasoft PP ?                                                          
   IUNSCR =        1    unscreen: 0-lin 1-nonlin 2-no                                               
   RPACOR =    1.200    partial core radius                                                         
   POMASS =   16.000; ZVAL   =    6.000    mass and valenz                                          
   RCORE  =    1.520    outmost cutoff radius                                                       
   RWIGS  =    1.550; RWIGS  =    0.820    wigner-seitz radius (au A)                               
   ENMAX  =  400.000; ENMIN  =  300.000 eV                                                          
   ICORE  =        2    local potential                                                             
   LCOR   =        T    correct aug charges                                                         
   LPAW   =        T    paw PP                                                                      
   EAUG   =  605.392                                                                                
   DEXC   =    0.000                                                                                
   RMAX   =    1.553    core radius for proj-oper                                                   
   RAUG   =    1.300    factor for augmentation sphere                                              
   RDEP   =    1.550    radius for radial grids                                                     
   RDEPT  =    1.329    core radius for aug-charge                                                  
                                                                                                    
   Atomic configuration                                                                             
    4 entries                                                                                       
     n  l   j            E        occ.                                                              
     1  0  0.50      -514.6923   2.0000                                                             
     2  0  0.50       -23.9615   2.0000                                                             
     2  1  0.50        -9.0305   4.0000                                                             
     3  2  1.50        -9.5241   0.0000                                                             
   Description                                                                                      
     l       E           TYP  RCUT    TYP  RCUT                                                     
     0    -23.9615318     23  1.200                                                                 
     0     -9.5240782     23  1.200                                                                 
     1     -9.0304911     23  1.520                                                                 
     1      8.1634956     23  1.520                                                                 
     2     -9.5240782      7  1.500                                                                 
  local pseudopotential read in
  partial core-charges read in
  partial kinetic energy density read in
  kinetic energy density of atom read in
  atomic valenz-charges read in
  non local Contribution for L=           0  read in
    real space projection operators read in
  non local Contribution for L=           0  read in
    real space projection operators read in
  non local Contribution for L=           1  read in
    real space projection operators read in
  non local Contribution for L=           1  read in
    real space projection operators read in
    PAW grid and wavefunctions read in
 
   number of l-projection  operators is LMAX  =           4
   number of lm-projection operators is LMMAX =           8
 
 POTCAR:    PAW_PBE Cu 22Jun2005                  
   VRHFIN =Cu: d10 p1                                                                               
   LEXCH  = PE                                                                                      
   EATOM  =  1390.9808 eV,  102.2342 Ry                                                             
                                                                                                    
   TITEL  = PAW_PBE Cu 22Jun2005                                                                    
   LULTRA =        F    use ultrasoft PP ?                                                          
   IUNSCR =        1    unscreen: 0-lin 1-nonlin 2-no                                               
   RPACOR =    2.000    partial core radius                                                         
   POMASS =   63.546; ZVAL   =   11.000    mass and valenz                                          
   RCORE  =    2.300    outmost cutoff radius                                                       
   RWIGS  =    2.200; RWIGS  =    1.164    wigner-seitz radius (au A)                               
   ENMAX  =  295.446; ENMIN  =  221.585 eV                                                          
   ICORE  =        3    local potential                                                             
   LCOR   =        T    correct aug charges                                                         
   LPAW   =        T    paw PP                                                                      
   EAUG   =  586.980                                                                                
   DEXC   =    0.000                                                                                
   RMAX   =    2.344    core radius for proj-oper                                                   
   RAUG   =    1.300    factor for augmentation sphere                                              
   RDEP   =    2.302    radius for radial grids                                                     
   RDEPT  =    1.771    core radius for aug-charge                                                  
                                                                                                    
   Atomic configuration                                                                             
    9 entries                                                                                       
     n  l   j            E        occ.                                                              
     1  0  0.50     -8850.2468   2.0000                                                             
     2  0  0.50     -1062.3498   2.0000                                                             
     2  1  1.50      -916.8226   6.0000                                                             
     3  0  0.50      -114.6929   2.0000                                                             
     3  1  1.50       -72.1325   6.0000                                                             
     3  2  2.50        -5.0394  10.0000                                                             
     4  0  0.50        -4.6097   1.0000                                                             
     4  1  0.50        -4.0817   0.0000                                                             
     4  3  2.50        -1.3606   0.0000                                                             
   Description                                                                                      
     l       E           TYP  RCUT    TYP  RCUT                                                     
     2     -5.0393973     23  2.200                                                                 
     2     10.8846608     23  2.200                                                                 
     0     -4.6097109     23  2.200                                                                 
     0      8.2520465     23  2.200                                                                 
     1     -2.7211652     23  2.200                                                                 
     1     21.7055443     23  2.200                                                                 
     3      2.7211652     23  2.300                                                                 
  local pseudopotential read in
  partial core-charges read in
  partial kinetic energy density read in
  atomic valenz-charges read in
  non local Contribution for L=           2  read in
    real space projection operators read in
  non local Contribution for L=           2  read in
    real space projection operators read in
  non local Contribution for L=           0  read in
    real space projection operators read in
  non local Contribution for L=           0  read in
    real space projection operators read in
  non local Contribution for L=           1  read in
    real space projection operators read in
  non local Contribution for L=           1  read in
    real space projection operators read in
    PAW grid and wavefunctions read in
 
   number of l-projection  operators is LMAX  =           6
   number of lm-projection operators is LMMAX =          18
 
 Optimization of the real space projectors (new method)

 maximal supplied QI-value         = 34.20
 optimisation between [QCUT,QGAM] = [  9.92, 20.18] = [ 27.55,114.04] Ry 
 Optimized for a Real-space Cutoff    1.34 Angstroem

   l    n(q)    QCUT    max X(q) W(low)/X(q) W(high)/X(q)  e(spline) 
   0      8     9.919    19.460    0.16E-03    0.20E-03    0.36E-06
   0      8     9.919    12.209    0.16E-03    0.20E-03    0.35E-06
   1      8     9.919     4.655    0.19E-03    0.46E-03    0.40E-06
 Optimization of the real space projectors (new method)

 maximal supplied QI-value         = 25.13
 optimisation between [QCUT,QGAM] = [ 10.05, 20.36] = [ 28.30,116.06] Ry 
 Optimized for a Real-space Cutoff    1.51 Angstroem

   l    n(q)    QCUT    max X(q) W(low)/X(q) W(high)/X(q)  e(spline) 
   0      9    10.053   115.676    0.19E-03    0.21E-03    0.38E-06
   0      9    10.053    87.132    0.19E-03    0.21E-03    0.38E-06
   1      9    10.053     4.429    0.87E-04    0.11E-03    0.39E-06
   1      9    10.053     2.733    0.59E-04    0.62E-04    0.43E-06
 Optimization of the real space projectors (new method)

 maximal supplied QI-value         = 25.13
 optimisation between [QCUT,QGAM] = [ 10.05, 20.36] = [ 28.30,116.06] Ry 
 Optimized for a Real-space Cutoff    1.70 Angstroem

   l    n(q)    QCUT    max X(q) W(low)/X(q) W(high)/X(q)  e(spline) 
   0     10    10.053    79.467    0.61E-04    0.98E-04    0.61E-06
   0     10    10.053    66.151    0.60E-04    0.98E-04    0.61E-06
   1     10    10.053     8.350    0.17E-03    0.71E-03    0.45E-05
   1     10    10.053     5.531    0.18E-03    0.77E-03    0.49E-05
 Optimization of the real space projectors (new method)

 maximal supplied QI-value         = 24.76
 optimisation between [QCUT,QGAM] = [ 10.15, 20.30] = [ 28.85,115.39] Ry 
 Optimized for a Real-space Cutoff    1.51 Angstroem

   l    n(q)    QCUT    max X(q) W(low)/X(q) W(high)/X(q)  e(spline) 
   0      9    10.150    20.381    0.17E-03    0.18E-03    0.41E-06
   0      9    10.150    15.268    0.18E-03    0.20E-03    0.43E-06
   1      9    10.150     5.964    0.16E-03    0.20E-03    0.36E-06
   1      9    10.150     5.382    0.13E-03    0.16E-03    0.33E-06
 Optimization of the real space projectors (new method)

 maximal supplied QI-value         = 16.25
 optimisation between [QCUT,QGAM] = [ 10.24, 20.48] = [ 29.35,117.42] Ry 
 Optimized for a Real-space Cutoff    1.55 Angstroem

   l    n(q)    QCUT    max X(q) W(low)/X(q) W(high)/X(q)  e(spline) 
   2      9    10.239     4.610    0.85E-04    0.29E-03    0.14E-06
   2      9    10.239     8.522    0.15E-03    0.50E-03    0.27E-06
   0     10    10.239    51.609    0.45E-04    0.99E-04    0.10E-06
   0     10    10.239    27.747    0.40E-04    0.93E-04    0.97E-07
   1      9    10.239    20.408    0.15E-03    0.78E-05    0.15E-06
   1      9    10.239    13.425    0.13E-03    0.71E-05    0.14E-06
  PAW_PBE H 15Jun2001                   :
 energy of atom  1       EATOM=  -12.4884
 kinetic energy error for atom=    0.0098 (will be added to EATOM!!)
  PAW_PBE C 08Apr2002                   :
 energy of atom  2       EATOM= -147.1560
 kinetic energy error for atom=    0.0288 (will be added to EATOM!!)
  PAW_PBE N 08Apr2002                   :
 energy of atom  3       EATOM= -264.5486
 kinetic energy error for atom=    0.0736 (will be added to EATOM!!)
  PAW_PBE O 08Apr2002                   :
 energy of atom  4       EATOM= -432.3788
 kinetic energy error for atom=    0.1156 (will be added to EATOM!!)
  PAW_PBE Cu 22Jun2005                  :
 energy of atom  5       EATOM=-1390.9808
 kinetic energy error for atom=    0.0232 (will be added to EATOM!!)
 
 
 POSCAR: COOH
  positions in direct lattice
  No initial velocities read in
 exchange correlation table for  LEXCH =        8
   RHO(1)=    0.500       N(1)  =     2000
   RHO(2)=  100.500       N(2)  =     4000

 VTST: version 4.1, (05/19/21)

 CHAIN: initializing optimizer
 
 OPT: Using VASP Dynamics algorithm
 CHAIN: Read ICHAIN            0
 
 POSCAR: COOH
  positions in direct lattice
  No initial velocities read in
 


--------------------------------------------------------------------------------------------------------


 ion  position               nearest neighbor table
   1  0.661  0.809  0.390-  14 1.09
   2  0.793  0.684  0.395-  17 1.09
   3  0.486  0.803  0.383-  18 1.09
   4  0.185  0.669  0.380-  21 1.09
   5  0.310  0.800  0.375-  22 1.09
   6  0.192  0.493  0.393-  23 1.09
   7  0.196  0.319  0.399-  25 1.09
   8  0.328  0.194  0.399-  26 1.09
   9  0.796  0.509  0.394-  28 1.09
  10  0.803  0.333  0.390-  30 1.09
  11  0.678  0.201  0.390-  31 1.09
  12  0.501  0.200  0.394-  33 1.09
  13  0.461  0.575  0.624-  40 0.99
  14  0.655  0.737  0.392-   1 1.09  17 1.37  15 1.44
  15  0.571  0.689  0.391-  35 1.37  18 1.39  14 1.44
  16  0.678  0.588  0.395-  35 1.38  28 1.39  17 1.44
  17  0.721  0.674  0.394-   2 1.09  14 1.37  16 1.44
  18  0.488  0.730  0.385-   3 1.09  19 1.39  15 1.39
  19  0.406  0.686  0.382-  36 1.37  18 1.39  22 1.45
  20  0.304  0.579  0.386-  36 1.37  23 1.39  21 1.44
  21  0.257  0.663  0.381-   4 1.09  22 1.37  20 1.44
  22  0.320  0.729  0.378-   5 1.09  21 1.37  19 1.45
  23  0.265  0.496  0.394-   6 1.09  20 1.39  24 1.39
  24  0.310  0.415  0.400-  37 1.37  23 1.39  25 1.44
  25  0.267  0.329  0.400-   7 1.09  26 1.37  24 1.44
  26  0.334  0.266  0.400-   8 1.09  25 1.37  27 1.44
  27  0.417  0.313  0.400-  37 1.38  33 1.39  26 1.44
  28  0.723  0.507  0.393-   9 1.09  16 1.39  29 1.39
  29  0.683  0.423  0.389-  38 1.37  28 1.39  30 1.45
  30  0.731  0.339  0.390-  10 1.09  31 1.37  29 1.45
  31  0.668  0.273  0.389-  11 1.09  30 1.37  32 1.45
  32  0.582  0.316  0.389-  38 1.37  33 1.39  31 1.45
  33  0.500  0.273  0.394-  12 1.09  27 1.39  32 1.39
  34  0.504  0.508  0.525-  41 1.21  40 1.33  42 2.04
  35  0.587  0.599  0.394-  15 1.37  16 1.38  42 2.03
  36  0.394  0.595  0.385-  20 1.37  19 1.37  42 2.04
  37  0.401  0.404  0.402-  24 1.37  27 1.38  42 2.02
  38  0.593  0.407  0.386-  32 1.37  29 1.37  42 2.07
  39  0.480  0.507  0.264-  42 1.89
  40  0.453  0.572  0.558-  13 0.99  34 1.33
  41  0.553  0.458  0.565-  34 1.21
  42  0.493  0.502  0.389-  39 1.89  37 2.02  35 2.03  36 2.04  34 2.04  38 2.07
 

IMPORTANT INFORMATION: All symmetrisations will be switched off!
NOSYMM: (Re-)initialisation of all symmetry stuff for point group C_1.


----------------------------------------------------------------------------------------

                                     Primitive cell                                     

  volume of cell :    3375.0000

  direct lattice vectors                    reciprocal lattice vectors
    15.000000000  0.000000000  0.000000000     0.066666667  0.000000000  0.000000000
     0.000000000 15.000000000  0.000000000     0.000000000  0.066666667  0.000000000
     0.000000000  0.000000000 15.000000000     0.000000000  0.000000000  0.066666667

  length of vectors
    15.000000000 15.000000000 15.000000000     0.066666667  0.066666667  0.066666667

  position of ions in fractional coordinates (direct lattice)
     0.660990295  0.808746562  0.389560238
     0.792651212  0.683627835  0.394820767
     0.486301280  0.802503100  0.382707388
     0.184989847  0.669047294  0.380483961
     0.310226391  0.800471753  0.375045736
     0.192170586  0.493012467  0.393440948
     0.195537823  0.318550676  0.399181656
     0.327669631  0.193760212  0.398730259
     0.795546956  0.508968499  0.394443684
     0.803089098  0.332830526  0.390328132
     0.677789328  0.201120306  0.390114943
     0.501469070  0.199939826  0.394447412
     0.461415827  0.575129374  0.623503129
     0.654774722  0.736603402  0.391860205
     0.570973802  0.689368881  0.391096480
     0.678028753  0.587699397  0.395082164
     0.720850879  0.673811386  0.394480646
     0.487642090  0.729877613  0.385144864
     0.406219129  0.685844397  0.381874318
     0.304418011  0.579018114  0.386320425
     0.257176817  0.662812626  0.381198466
     0.320037546  0.728765532  0.378440580
     0.264805003  0.495631203  0.393769165
     0.310025200  0.414776159  0.399787918
     0.267294270  0.328567553  0.400262937
     0.333563114  0.265974859  0.399981533
     0.417246431  0.313450707  0.399576286
     0.722924924  0.506582690  0.392980309
     0.683137694  0.422804134  0.388902549
     0.730890566  0.338977937  0.389555277
     0.668076733  0.272939359  0.389406187
     0.581983253  0.316461411  0.389051086
     0.500369332  0.272624374  0.394307975
     0.504149614  0.507944505  0.524840546
     0.586975190  0.599214608  0.394371948
     0.394495577  0.595117198  0.385042791
     0.400958291  0.403725788  0.401520235
     0.593328405  0.406926273  0.386051525
     0.479771546  0.506758816  0.264361759
     0.453036100  0.571868293  0.558087715
     0.553298245  0.458375184  0.564916342
     0.492828418  0.501741171  0.389365514

  ion indices of the primitive-cell ions
   primitive index   ion index
                 1           1
                 2           2
                 3           3
                 4           4
                 5           5
                 6           6
                 7           7
                 8           8
                 9           9
                10          10
                11          11
                12          12
                13          13
                14          14
                15          15
                16          16
                17          17
                18          18
                19          19
                20          20
                21          21
                22          22
                23          23
                24          24
                25          25
                26          26
                27          27
                28          28
                29          29
                30          30
                31          31
                32          32
                33          33
                34          34
                35          35
                36          36
                37          37
                38          38
                39          39
                40          40
                41          41
                42          42

----------------------------------------------------------------------------------------

 
 
 KPOINTS: Cu-porphyrin                            

Automatic generation of k-mesh.
 Grid dimensions read from file:
 generate k-points for:    3    3    1

 Generating k-lattice:

  Cartesian coordinates                     Fractional coordinates (reciprocal lattice)
     0.022222222  0.000000000  0.000000000     0.333333333  0.000000000  0.000000000
     0.000000000  0.022222222  0.000000000     0.000000000  0.333333333  0.000000000
     0.000000000  0.000000000  0.066666667     0.000000000  0.000000000  1.000000000

  Length of vectors
     0.022222222  0.022222222  0.066666667

  Shift w.r.t. Gamma in fractional coordinates (k-lattice)
     0.000000000  0.000000000  0.000000000

 -----------------------------------------------------------------------------
|                                                                             |
|           W    W    AA    RRRRR   N    N  II  N    N   GGGG   !!!           |
|           W    W   A  A   R    R  NN   N  II  NN   N  G    G  !!!           |
|           W    W  A    A  R    R  N N  N  II  N N  N  G       !!!           |
|           W WW W  AAAAAA  RRRRR   N  N N  II  N  N N  G  GGG   !            |
|           WW  WW  A    A  R   R   N   NN  II  N   NN  G    G                |
|           W    W  A    A  R    R  N    N  II  N    N   GGGG   !!!           |
|                                                                             |
|     Your reciprocal lattice and k-lattice belong to different lattice       |
|     classes:                                                                |
|                                                                             |
|        The reciprocal lattice is simple cubic,                              |
|        whereas your k-lattice is simple tetragonal.                         |
|                                                                             |
|     Results are often still useful ...                                      |
|                                                                             |
 -----------------------------------------------------------------------------

 WARNING: IBZKPT: internal override: KBLOWUP is changed to .FALSE.
      ... skipping the blow-up phase ...

 
 Subroutine IBZKPT returns following result:
 ===========================================
 
 Found      5 irreducible k-points:
 
 Following reciprocal coordinates:
            Coordinates               Weight
  0.000000  0.000000  0.000000      1.000000
  0.333333  0.000000  0.000000      2.000000
  0.000000  0.333333  0.000000      2.000000
  0.333333  0.333333  0.000000      2.000000
 -0.333333  0.333333  0.000000      2.000000
 
 Following cartesian coordinates:
            Coordinates               Weight
  0.000000  0.000000  0.000000      1.000000
  0.022222  0.000000  0.000000      2.000000
  0.000000  0.022222  0.000000      2.000000
  0.022222  0.022222  0.000000      2.000000
 -0.022222  0.022222  0.000000      2.000000
 
 WARNING: full set of k-points will be restricted to regular points only.

 
 Subroutine IBZKPT_HF returns following result:
 ==============================================
 
 Found      9 k-points in 1st BZ
 the following      9 k-points will be used (e.g. in the exchange kernel)
 Following reciprocal coordinates:   # in IRBZ
  0.000000  0.000000  0.000000    0.11111111   1 t-inv F
  0.333333  0.000000  0.000000    0.11111111   2 t-inv F
  0.000000  0.333333  0.000000    0.11111111   3 t-inv F
  0.333333  0.333333  0.000000    0.11111111   4 t-inv F
 -0.333333  0.333333  0.000000    0.11111111   5 t-inv F
 -0.333333  0.000000  0.000000    0.11111111   2 t-inv T
  0.000000 -0.333333  0.000000    0.11111111   3 t-inv T
 -0.333333 -0.333333  0.000000    0.11111111   4 t-inv T
  0.333333 -0.333333  0.000000    0.11111111   5 t-inv T


--------------------------------------------------------------------------------------------------------




 Dimension of arrays:
   k-points           NKPTS =      5   k-points in BZ     NKDIM =      5   number of bands    NBANDS=    116
   number of dos      NEDOS =    301   number of ions     NIONS =     42
   non local maximal  LDIM  =      6   non local SUM 2l+1 LMDIM =     18
   total plane-waves  NPLWV = 941192
   max r-space proj   IRMAX =   5767   max aug-charges    IRDMAX=  64814
   dimension x,y,z NGX =    98 NGY =   98 NGZ =   98
   dimension x,y,z NGXF=   196 NGYF=  196 NGZF=  196
   support grid    NGXF=   392 NGYF=  392 NGZF=  392
   ions per type =              13  21   4   3   1
   NGX,Y,Z   is equivalent  to a cutoff of  10.86, 10.86, 10.86 a.u.
   NGXF,Y,Z  is equivalent  to a cutoff of  21.72, 21.72, 21.72 a.u.

 SYSTEM =  unknown system                          
 POSCAR =  COOH                                    

 Startparameter for this run:
   NWRITE =      2    write-flag & timer
   PREC   = accura    normal or accurate (medium, high low for compatibility)
   ISTART =      0    job   : 0-new  1-cont  2-samecut
   ICHARG =      2    charge: 1-file 2-atom 10-const
   ISPIN  =      2    spin polarized calculation?
   LNONCOLLINEAR =      F non collinear calculations
   LSORBIT =      F    spin-orbit coupling
   INIWAV =      1    electr: 0-lowe 1-rand  2-diag
   LASPH  =      T    aspherical Exc in radial PAW
 Electronic Relaxation 1
   ENCUT  =  400.0 eV  29.40 Ry    5.42 a.u.  24.46 24.46 24.46*2*pi/ulx,y,z
   ENINI  =  400.0     initial cutoff
   ENAUG  =  644.9 eV  augmentation charge cutoff
   NELM   =    100;   NELMIN=  2; NELMDL= -5     # of ELM steps 
   EDIFF  = 0.1E-03   stopping-criterion for ELM
   LREAL  =      T    real-space projection
   NLSPLINE    = F    spline interpolate recip. space projectors
   LCOMPAT=      F    compatible to vasp.4.4
   GGA_COMPAT  = T    GGA compatible to vasp.4.4-vasp.4.6
   LMAXPAW     = -100 max onsite density
   LMAXMIX     =    2 max onsite mixed and CHGCAR
   VOSKOWN=      0    Vosko Wilk Nusair interpolation
   ROPT   =   -0.00025  -0.00025  -0.00025  -0.00025
   ROPT   =   -0.00025
 Ionic relaxation
   EDIFFG = -.5E-01   stopping-criterion for IOM
   NSW    =    541    number of steps for IOM
   NBLOCK =      1;   KBLOCK =    541    inner block; outer block 
   IBRION =      5    ionic relax: 0-MD 1-quasi-New 2-CG
   NFREE  =      2    steps in history (QN), initial steepest desc. (CG)
   ISIF   =      2    stress and relaxation
   IWAVPR =     11    prediction:  0-non 1-charg 2-wave 3-comb
   ISYM   =      0    0-nonsym 1-usesym 2-fastsym
   LCORR  =      T    Harris-Foulkes like correction to forces

   POTIM  = 0.0200    time-step for ionic-motion
   TEIN   =    0.0    initial temperature
   TEBEG  =    0.0;   TEEND  =   0.0 temperature during run
   SMASS  =  -3.00    Nose mass-parameter (am)
   estimated Nose-frequenzy (Omega)   =  0.10E-29 period in steps = 0.31E+48 mass=  -0.514E-26a.u.
   SCALEE = 1.0000    scale energy and forces
   NPACO  =    256;   APACO  = 10.0  distance and # of slots for P.C.
   PSTRESS=    0.0 pullay stress

  Mass of Ions in am
   POMASS =   1.00 12.01 14.00 16.00 63.55
  Ionic Valenz
   ZVAL   =   1.00  4.00  5.00  6.00 11.00
  Atomic Wigner-Seitz radii
   RWIGS  =  -1.00 -1.00 -1.00 -1.00 -1.00
  virtual crystal weights 
   VCA    =   1.00  1.00  1.00  1.00  1.00
   NELECT =     146.0000    total number of electrons
   NUPDOWN=      -1.0000    fix difference up-down

 DOS related values:
   EMIN   =  10.00;   EMAX   =-10.00  energy-range for DOS
   EFERMI =   0.00
   ISMEAR =     1;   SIGMA  =   0.20  broadening in eV -4-tet -1-fermi 0-gaus

 Electronic relaxation 2 (details)
   IALGO  =     68    algorithm
   LDIAG  =      T    sub-space diagonalisation (order eigenvalues)
   LSUBROT=      F    optimize rotation matrix (better conditioning)
   TURBO    =      0    0=normal 1=particle mesh
   IRESTART =      0    0=no restart 2=restart with 2 vectors
   NREBOOT  =      0    no. of reboots
   NMIN     =      0    reboot dimension
   EREF     =   0.00    reference energy to select bands
   IMIX   =      4    mixing-type and parameters
     AMIX     =   0.20;   BMIX     =  0.00
     AMIX_MAG =   0.80;   BMIX_MAG =  0.00
     AMIN     =   0.10
     WC   =   100.;   INIMIX=   1;  MIXPRE=   1;  MAXMIX= -45

 Intra band minimization:
   WEIMIN = 0.0010     energy-eigenvalue tresh-hold
   EBREAK =  0.22E-06  absolut break condition
   DEPER  =   0.30     relativ break condition  

   TIME   =   0.40     timestep for ELM

  volume/ion in A,a.u.               =      80.36       542.28
  Fermi-wavevector in a.u.,A,eV,Ry     =   0.574691  1.086009  4.493595  0.330270
  Thomas-Fermi vector in A             =   1.616483
 
 Write flags
   LWAVE        =      T    write WAVECAR
   LDOWNSAMPLE  =      F    k-point downsampling of WAVECAR
   LCHARG       =      T    write CHGCAR
   LVTOT        =      F    write LOCPOT, total local potential
   LVHAR        =      F    write LOCPOT, Hartree potential only
   LELF         =      F    write electronic localiz. function (ELF)
   LORBIT       =     11    0 simple, 1 ext, 2 COOP (PROOUT), +10 PAW based schemes


 Dipole corrections
   LMONO  =      F    monopole corrections only (constant potential shift)
   LDIPOL =      F    correct potential (dipole corrections)
   IDIPOL =      0    1-x, 2-y, 3-z, 4-all directions 
   EPSILON=  1.0000000 bulk dielectric constant

 Exchange correlation treatment:
   GGA     =    --    GGA type
   LEXCH   =     8    internal setting for exchange type
   LIBXC   =     F    Libxc                    
   VOSKOWN =     0    Vosko Wilk Nusair interpolation
   LHFCALC =     F    Hartree Fock is set to
   LHFONE  =     F    Hartree Fock one center treatment
   AEXX    =    0.0000 exact exchange contribution

 Linear response parameters
   LEPSILON=     F    determine dielectric tensor
   LRPA    =     F    only Hartree local field effects (RPA)
   LNABLA  =     F    use nabla operator in PAW spheres
   LVEL    =     F    velocity operator in full k-point grid
   CSHIFT  =0.1000    complex shift for real part using Kramers Kronig
   OMEGAMAX=  -1.0    maximum frequency
   DEG_THRESHOLD= 0.2000000E-02 threshold for treating states as degnerate
   RTIME   =   -0.100 relaxation time in fs
  (WPLASMAI=    0.000 imaginary part of plasma frequency in eV, 0.658/RTIME)
   DFIELD  = 0.0000000 0.0000000 0.0000000 field for delta impulse in time
 
  Optional k-point grid parameters
   LKPOINTS_OPT  =     F    use optional k-point grid
   KPOINTS_OPT_MODE=     1    mode for optional k-point grid
 
 Orbital magnetization related:
   ORBITALMAG=     F  switch on orbital magnetization
   LCHIMAG   =     F  perturbation theory with respect to B field
   DQ        =  0.001000  dq finite difference perturbation B field
   LLRAUG    =     F  two centre corrections for induced B field

 Solvation model:
   LSOL    =     T         switch on solvation model
   EB_K    = 78.400000     relative permittivity of the bulk solvent
   SIGMA_K =  0.600000     width of the dielectric cavity
   NC_K    =  0.002500     cutoff charge density
   TAU     =  0.000525     cavity surface tension
   LAMBDA_D_K    =**********     Debye length in Angstroms
   LRHOB     =     F     write boundcharge  density
   LRHOION     =     F     write ioniccharge density



--------------------------------------------------------------------------------------------------------


 finite differences
   using selective dynamics as specified on POSCAR
 charge density and potential will be updated during run
 spin polarized calculation
 RMM-DIIS sequential band-by-band and
  variant of blocked Davidson during initial phase
 perform sub-space diagonalisation
    before iterative eigenvector-optimisation
 modified Broyden-mixing scheme, WC =      100.0
 initial mixing is a Kerker type mixing with AMIX =  0.2000 and BMIX =      0.0010
 Hartree-type preconditioning will be used
 using additional bands           43
 real space projection scheme for non local part
 use partial core corrections
 calculate Harris-corrections to forces 
   (improved forces if not selfconsistent)
 use gradient corrections 
 use of overlap-Matrix (Vanderbilt PP)
 Methfessel and Paxton  Order N= 1 SIGMA  =   0.20


--------------------------------------------------------------------------------------------------------


  energy-cutoff  :      400.00
  volume of cell :     3375.00
      direct lattice vectors                 reciprocal lattice vectors
    15.000000000  0.000000000  0.000000000     0.066666667  0.000000000  0.000000000
     0.000000000 15.000000000  0.000000000     0.000000000  0.066666667  0.000000000
     0.000000000  0.000000000 15.000000000     0.000000000  0.000000000  0.066666667

  length of vectors
    15.000000000 15.000000000 15.000000000     0.066666667  0.066666667  0.066666667


 
 k-points in units of 2pi/SCALE and weight: Cu-porphyrin                            
   0.00000000  0.00000000  0.00000000       0.111
   0.02222222  0.00000000  0.00000000       0.222
   0.00000000  0.02222222  0.00000000       0.222
   0.02222222  0.02222222  0.00000000       0.222
  -0.02222222  0.02222222  0.00000000       0.222
 
 k-points in reciprocal lattice and weights: Cu-porphyrin                            
   0.00000000  0.00000000  0.00000000       0.111
   0.33333333  0.00000000  0.00000000       0.222
   0.00000000  0.33333333  0.00000000       0.222
   0.33333333  0.33333333  0.00000000       0.222
  -0.33333333  0.33333333  0.00000000       0.222
 
 position of ions in fractional coordinates (direct lattice) 
   0.66099030  0.80874656  0.38956024
   0.79265121  0.68362784  0.39482077
   0.48630128  0.80250310  0.38270739
   0.18498985  0.66904729  0.38048396
   0.31022639  0.80047175  0.37504574
   0.19217059  0.49301247  0.39344095
   0.19553782  0.31855068  0.39918166
   0.32766963  0.19376021  0.39873026
   0.79554696  0.50896850  0.39444368
   0.80308910  0.33283053  0.39032813
   0.67778933  0.20112031  0.39011494
   0.50146907  0.19993983  0.39444741
   0.46141583  0.57512937  0.62350313
   0.65477472  0.73660340  0.39186020
   0.57097380  0.68936888  0.39109648
   0.67802875  0.58769940  0.39508216
   0.72085088  0.67381139  0.39448065
   0.48764209  0.72987761  0.38514486
   0.40621913  0.68584440  0.38187432
   0.30441801  0.57901811  0.38632043
   0.25717682  0.66281263  0.38119847
   0.32003755  0.72876553  0.37844058
   0.26480500  0.49563120  0.39376916
   0.31002520  0.41477616  0.39978792
   0.26729427  0.32856755  0.40026294
   0.33356311  0.26597486  0.39998153
   0.41724643  0.31345071  0.39957629
   0.72292492  0.50658269  0.39298031
   0.68313769  0.42280413  0.38890255
   0.73089057  0.33897794  0.38955528
   0.66807673  0.27293936  0.38940619
   0.58198325  0.31646141  0.38905109
   0.50036933  0.27262437  0.39430797
   0.50414961  0.50794451  0.52484055
   0.58697519  0.59921461  0.39437195
   0.39449558  0.59511720  0.38504279
   0.40095829  0.40372579  0.40152024
   0.59332841  0.40692627  0.38605153
   0.47977155  0.50675882  0.26436176
   0.45303610  0.57186829  0.55808772
   0.55329825  0.45837518  0.56491634
   0.49282842  0.50174117  0.38936551
 
 position of ions in cartesian coordinates  (Angst):
   9.91485443 12.13119842  5.84340358
  11.88976818 10.25441753  5.92231151
   7.29451919 12.03754650  5.74061081
   2.77484770 10.03570941  5.70725942
   4.65339586 12.00707629  5.62568604
   2.88255878  7.39518700  5.90161423
   2.93306735  4.77826014  5.98772485
   4.91504446  2.90640318  5.98095388
  11.93320434  7.63452748  5.91665526
  12.04633647  4.99245790  5.85492198
  10.16683992  3.01680459  5.85172414
   7.52203605  2.99909739  5.91671118
   6.92123741  8.62694060  9.35254693
   9.82162083 11.04905104  5.87790307
   8.56460703 10.34053321  5.86644720
  10.17043129  8.81549095  5.92623246
  10.81276319 10.10717080  5.91720969
   7.31463135 10.94816419  5.77717296
   6.09328693 10.28766595  5.72811478
   4.56627016  8.68527172  5.79480638
   3.85765226  9.94218939  5.71797699
   4.80056319 10.93148298  5.67660870
   3.97207504  7.43446804  5.90653747
   4.65037800  6.22164238  5.99681877
   4.00941406  4.92851330  6.00394405
   5.00344671  3.98962289  5.99972300
   6.25869647  4.70176061  5.99364429
  10.84387385  7.59874035  5.89470463
  10.24706541  6.34206200  5.83353823
  10.96335849  5.08466905  5.84332916
  10.02115100  4.09409039  5.84109280
   8.72974880  4.74692116  5.83576630
   7.50553998  4.08936561  5.91461962
   7.56224421  7.61916758  7.87260819
   8.80462784  8.98821912  5.91557923
   5.91743366  8.92675798  5.77564186
   6.01437437  6.05588682  6.02280353
   8.89992608  6.10389410  5.79077288
   7.19657319  7.60138224  3.96542639
   6.79554150  8.57802440  8.37131573
   8.29947368  6.87562777  8.47374513
   7.39242628  7.52611756  5.84048271
 


--------------------------------------------------------------------------------------------------------


 k-point   1 :   0.0000 0.0000 0.0000  plane waves:   61445
 k-point   2 :   0.3333 0.0000 0.0000  plane waves:   61273
 k-point   3 :   0.0000 0.3333 0.0000  plane waves:   61273
 k-point   4 :   0.3333 0.3333 0.0000  plane waves:   61294
 k-point   5 :  -0.3333 0.3333 0.0000  plane waves:   61294

 maximum and minimum number of plane-waves per node :      3877     3798

 maximum number of plane-waves:     61445
 maximum index in each direction: 
   IXMAX=   24   IYMAX=   24   IZMAX=   24
   IXMIN=  -24   IYMIN=  -24   IZMIN=  -24


 real space projection operators:
  total allocation   :       9207.23 KBytes
  max/ min on nodes  :        608.31        545.09


 parallel 3D FFT for wavefunctions:
    minimum data exchange during FFTs selected (reduces bandwidth)
 parallel 3D FFT for charge:
    minimum data exchange during FFTs selected (reduces bandwidth)


 total amount of memory used by VASP MPI-rank0   142806. kBytes
=======================================================================

   base      :      30000. kBytes
   nonlr-proj:       4869. kBytes
   fftplans  :      38323. kBytes
   grid      :      33608. kBytes
   one-center:         93. kBytes
   wavefun   :      35913. kBytes
 
     INWAV:  cpu time      0.0000: real time      0.0000
 Broyden mixing: mesh for mixing (old mesh)
   NGX = 49   NGY = 49   NGZ = 49
  (NGX  =196   NGY  =196   NGZ  =196)
  gives a total of 117649 points

 initial charge density was supplied:
 charge density of overlapping atoms calculated
 number of electron     146.0000000 magnetization      42.0000000
 keeping initial charge density in first step


--------------------------------------------------------------------------------------------------------


 Maximum index for non-local projection operator          355
 Maximum index for augmentation-charges         1902 (set IRDMAX)


--------------------------------------------------------------------------------------------------------


 First call to EWALD:  gamma=   0.118
 Maximum number of real-space cells 3x 3x 3
 Maximum number of reciprocal cells 3x 3x 3

    FEWALD:  cpu time      0.0023: real time      0.0061


--------------------------------------- Iteration      1(   1)  ---------------------------------------


    POTLOK:  cpu time     12.5009: real time     12.6361
    SETDIJ:  cpu time      1.0449: real time      1.0526
     EDDAV:  cpu time     13.3392: real time     13.4041
       DOS:  cpu time      0.0034: real time      0.0047
    --------------------------------------------
      LOOP:  cpu time     26.8885: real time     27.0976

 eigenvalue-minimisations  :  2656
 total energy-change (2. order) : 0.1265671E+04  (-0.4042449E+04)
 number of electron     146.0000000 magnetization      42.0000000
 augmentation part      146.0000000 magnetization      42.0000000

 Free energy of the ion-electron system (eV)
  ---------------------------------------------------
  alpha Z        PSCENC =        29.63686728
  Ewald energy   TEWEN  =     14347.58300099
  -Hartree energ DENC   =    -19760.05487268
  -exchange      EXHF   =         0.00000000
  -V(xc)+E(xc)   XCENC  =       519.87978261
  PAW double counting   =      5386.09666582    -5513.92155120
  entropy T*S    EENTRO =        -0.00735781
  eigenvalues    EBANDS =      -714.28236341
  atomic energy  EATOM  =      6997.54116391
  Solvation  Ediel_sol  =       -26.80013964
  ---------------------------------------------------
  free energy    TOTEN  =      1265.67119586 eV

  energy without entropy =     1265.67855367  energy(sigma->0) =     1265.67364847


--------------------------------------------------------------------------------------------------------




--------------------------------------- Iteration      1(   2)  ---------------------------------------


     EDDAV:  cpu time     22.5284: real time     23.0122
       DOS:  cpu time      0.0031: real time      0.0031
    --------------------------------------------
      LOOP:  cpu time     22.5315: real time     23.0153

 eigenvalue-minimisations  :  3688
 total energy-change (2. order) :-0.1175207E+04  (-0.1078328E+04)
 number of electron     146.0000000 magnetization      42.0000000
 augmentation part      146.0000000 magnetization      42.0000000

 Free energy of the ion-electron system (eV)
  ---------------------------------------------------
  alpha Z        PSCENC =        29.63686728
  Ewald energy   TEWEN  =     14347.58300099
  -Hartree energ DENC   =    -19760.05487268
  -exchange      EXHF   =         0.00000000
  -V(xc)+E(xc)   XCENC  =       519.87978261
  PAW double counting   =      5386.09666582    -5513.92155120
  entropy T*S    EENTRO =        -0.01879686
  eigenvalues    EBANDS =     -1889.47837594
  atomic energy  EATOM  =      6997.54116391
  Solvation  Ediel_sol  =       -26.80013964
  ---------------------------------------------------
  free energy    TOTEN  =        90.46374429 eV

  energy without entropy =       90.48254115  energy(sigma->0) =       90.47000991


--------------------------------------------------------------------------------------------------------




--------------------------------------- Iteration      1(   3)  ---------------------------------------


     EDDAV:  cpu time     16.0344: real time     16.1007
       DOS:  cpu time      0.0035: real time      0.0035
    --------------------------------------------
      LOOP:  cpu time     16.0378: real time     16.1041

 eigenvalue-minimisations  :  3040
 total energy-change (2. order) :-0.3595917E+03  (-0.3498193E+03)
 number of electron     146.0000000 magnetization      42.0000000
 augmentation part      146.0000000 magnetization      42.0000000

 Free energy of the ion-electron system (eV)
  ---------------------------------------------------
  alpha Z        PSCENC =        29.63686728
  Ewald energy   TEWEN  =     14347.58300099
  -Hartree energ DENC   =    -19760.05487268
  -exchange      EXHF   =         0.00000000
  -V(xc)+E(xc)   XCENC  =       519.87978261
  PAW double counting   =      5386.09666582    -5513.92155120
  entropy T*S    EENTRO =        -0.03480988
  eigenvalues    EBANDS =     -2249.05408315
  atomic energy  EATOM  =      6997.54116391
  Solvation  Ediel_sol  =       -26.80013964
  ---------------------------------------------------
  free energy    TOTEN  =      -269.12797594 eV

  energy without entropy =     -269.09316606  energy(sigma->0) =     -269.11637265


--------------------------------------------------------------------------------------------------------




--------------------------------------- Iteration      1(   4)  ---------------------------------------


     EDDAV:  cpu time     17.4950: real time     17.5263
       DOS:  cpu time      0.0037: real time      0.0037
    --------------------------------------------
      LOOP:  cpu time     17.4986: real time     17.5299

 eigenvalue-minimisations  :  3752
 total energy-change (2. order) :-0.2882080E+02  (-0.2846460E+02)
 number of electron     146.0000000 magnetization      42.0000000
 augmentation part      146.0000000 magnetization      42.0000000

 Free energy of the ion-electron system (eV)
  ---------------------------------------------------
  alpha Z        PSCENC =        29.63686728
  Ewald energy   TEWEN  =     14347.58300099
  -Hartree energ DENC   =    -19760.05487268
  -exchange      EXHF   =         0.00000000
  -V(xc)+E(xc)   XCENC  =       519.87978261
  PAW double counting   =      5386.09666582    -5513.92155120
  entropy T*S    EENTRO =        -0.01053497
  eigenvalues    EBANDS =     -2277.89915811
  atomic energy  EATOM  =      6997.54116391
  Solvation  Ediel_sol  =       -26.80013964
  ---------------------------------------------------
  free energy    TOTEN  =      -297.94877600 eV

  energy without entropy =     -297.93824103  energy(sigma->0) =     -297.94526434


--------------------------------------------------------------------------------------------------------




--------------------------------------- Iteration      1(   5)  ---------------------------------------


     EDDAV:  cpu time     15.6184: real time     15.7852
       DOS:  cpu time      0.0033: real time      0.0033
    CHARGE:  cpu time      0.8977: real time      0.9042
    MIXING:  cpu time      0.0121: real time      0.0199
    --------------------------------------------
      LOOP:  cpu time     16.5316: real time     16.7127

 eigenvalue-minimisations  :  3160
 total energy-change (2. order) :-0.3751747E+00  (-0.3676985E+00)
 number of electron     146.0000001 magnetization      10.0211257
 augmentation part        7.4272511 magnetization       8.7129571

 Broyden mixing:
  rms(total) = 0.78539E+01    rms(broyden)= 0.78523E+01
  rms(prec ) = 0.92474E+01
  weight for this iteration     100.00

 Free energy of the ion-electron system (eV)
  ---------------------------------------------------
  alpha Z        PSCENC =        29.63686728
  Ewald energy   TEWEN  =     14347.58300099
  -Hartree energ DENC   =    -19760.05487268
  -exchange      EXHF   =         0.00000000
  -V(xc)+E(xc)   XCENC  =       519.87978261
  PAW double counting   =      5386.09666582    -5513.92155120
  entropy T*S    EENTRO =        -0.01622390
  eigenvalues    EBANDS =     -2278.26864386
  atomic energy  EATOM  =      6997.54116391
  Solvation  Ediel_sol  =       -26.80013964
  ---------------------------------------------------
  free energy    TOTEN  =      -298.32395067 eV

  energy without entropy =     -298.30772677  energy(sigma->0) =     -298.31854271


--------------------------------------------------------------------------------------------------------




--------------------------------------- Iteration      1(   6)  ---------------------------------------


    POTLOK:  cpu time     12.2025: real time     12.2492
    SETDIJ:  cpu time      1.0432: real time      1.0446
    EDDIAG:  cpu time      2.1706: real time      2.1822
  RMM-DIIS:  cpu time      9.9513: real time     10.0394
    ORTHCH:  cpu time      0.2550: real time      0.2551
       DOS:  cpu time      0.0030: real time      0.0031
    CHARGE:  cpu time      0.8296: real time      0.8360
    MIXING:  cpu time      0.0565: real time      0.0743
    --------------------------------------------
      LOOP:  cpu time     26.5117: real time     26.6840

 eigenvalue-minimisations  :  2926
 total energy-change (2. order) :-0.5819428E+02  (-0.3969104E+02)
 number of electron     146.0000002 magnetization       4.3471244
 augmentation part       14.4471817 magnetization       4.3546961

 Broyden mixing:
  rms(total) = 0.39848E+01    rms(broyden)= 0.39819E+01
  rms(prec ) = 0.48266E+01
  weight for this iteration     100.00

 eigenvalues of (default mixing * dielectric matrix)
  average eigenvalue GAMMA=   0.8054
  0.8054

 Free energy of the ion-electron system (eV)
  ---------------------------------------------------
  alpha Z        PSCENC =        29.63686728
  Ewald energy   TEWEN  =     14347.58300099
  -Hartree energ DENC   =    -19643.53625779
  -exchange      EXHF   =         0.00000000
  -V(xc)+E(xc)   XCENC  =       514.91901572
  PAW double counting   =      6411.70032595    -6510.56934320
  entropy T*S    EENTRO =         0.01183116
  eigenvalues    EBANDS =     -2462.36368317
  atomic energy  EATOM  =      6997.54116391
  Solvation  Ediel_sol  =       -41.44115449
  ---------------------------------------------------
  free energy    TOTEN  =      -356.51823365 eV

  energy without entropy =     -356.53006481  energy(sigma->0) =     -356.52217737


--------------------------------------------------------------------------------------------------------




--------------------------------------- Iteration      1(   7)  ---------------------------------------


    POTLOK:  cpu time     12.7356: real time     12.7879
    SETDIJ:  cpu time      1.0100: real time      1.0406
    EDDIAG:  cpu time      2.9312: real time      2.9629
  RMM-DIIS:  cpu time      8.1421: real time      8.1909
    ORTHCH:  cpu time      0.2471: real time      0.2474
       DOS:  cpu time      0.0030: real time      0.0030
    CHARGE:  cpu time      0.8384: real time      0.8396
    MIXING:  cpu time      0.0139: real time      0.0143
    --------------------------------------------
      LOOP:  cpu time     25.9214: real time     26.0866

 eigenvalue-minimisations  :  2408
 total energy-change (2. order) : 0.4012826E+02  (-0.7718061E+01)
 number of electron     146.0000002 magnetization       3.4659276
 augmentation part       13.3035642 magnetization       3.4076348

 Broyden mixing:
  rms(total) = 0.34369E+01    rms(broyden)= 0.34325E+01
  rms(prec ) = 0.40996E+01
  weight for this iteration     100.00

 eigenvalues of (default mixing * dielectric matrix)
  average eigenvalue GAMMA=   0.7394
  0.7394  0.7394

 Free energy of the ion-electron system (eV)
  ---------------------------------------------------
  alpha Z        PSCENC =        29.63686728
  Ewald energy   TEWEN  =     14347.58300099
  -Hartree energ DENC   =    -19911.93777854
  -exchange      EXHF   =         0.00000000
  -V(xc)+E(xc)   XCENC  =       519.95964703
  PAW double counting   =      7295.69293917    -7413.05219429
  entropy T*S    EENTRO =         0.02449941
  eigenvalues    EBANDS =     -2180.46474375
  atomic energy  EATOM  =      6997.54116391
  Solvation  Ediel_sol  =        -1.37337179
  ---------------------------------------------------
  free energy    TOTEN  =      -316.38997059 eV

  energy without entropy =     -316.41446999  energy(sigma->0) =     -316.39813706


--------------------------------------------------------------------------------------------------------




--------------------------------------- Iteration      1(   8)  ---------------------------------------


    POTLOK:  cpu time     12.9053: real time     13.0728
    SETDIJ:  cpu time      1.0394: real time      1.0402
    EDDIAG:  cpu time      2.2013: real time      2.2041
  RMM-DIIS:  cpu time      7.8091: real time      7.8242
    ORTHCH:  cpu time      0.2463: real time      0.2466
       DOS:  cpu time      0.0035: real time      0.0035
    CHARGE:  cpu time      0.8072: real time      0.8079
    MIXING:  cpu time      0.0102: real time      0.0102
    --------------------------------------------
      LOOP:  cpu time     25.0223: real time     25.2095

 eigenvalue-minimisations  :  2421
 total energy-change (2. order) : 0.9627398E+01  (-0.1871763E+01)
 number of electron     146.0000001 magnetization       2.0737824
 augmentation part       13.3624477 magnetization       1.1562925

 Broyden mixing:
  rms(total) = 0.25343E+01    rms(broyden)= 0.25294E+01
  rms(prec ) = 0.30376E+01
  weight for this iteration     100.00

 eigenvalues of (default mixing * dielectric matrix)
  average eigenvalue GAMMA=   0.8753
  1.1561  1.1561  0.3138

 Free energy of the ion-electron system (eV)
  ---------------------------------------------------
  alpha Z        PSCENC =        29.63686728
  Ewald energy   TEWEN  =     14347.58300099
  -Hartree energ DENC   =    -19983.04669987
  -exchange      EXHF   =         0.00000000
  -V(xc)+E(xc)   XCENC  =       521.44162244
  PAW double counting   =      7684.03128753    -7807.10164586
  entropy T*S    EENTRO =        -0.08090438
  eigenvalues    EBANDS =     -2095.00509343
  atomic energy  EATOM  =      6997.54116391
  Solvation  Ediel_sol  =        -1.76217169
  ---------------------------------------------------
  free energy    TOTEN  =      -306.76257307 eV

  energy without entropy =     -306.68166869  energy(sigma->0) =     -306.73560494


--------------------------------------------------------------------------------------------------------




--------------------------------------- Iteration      1(   9)  ---------------------------------------


    POTLOK:  cpu time     12.2064: real time     12.4218
    SETDIJ:  cpu time      1.0402: real time      1.0417
    EDDIAG:  cpu time      2.1509: real time      2.1537
  RMM-DIIS:  cpu time      8.9223: real time      8.9344
    ORTHCH:  cpu time      0.2460: real time      0.2461
       DOS:  cpu time      0.0031: real time      0.0031
    CHARGE:  cpu time      0.9244: real time      0.9272
    MIXING:  cpu time      0.0271: real time      0.0279
    --------------------------------------------
      LOOP:  cpu time     25.5206: real time     25.7560

 eigenvalue-minimisations  :  2764
 total energy-change (2. order) : 0.1606380E+02  (-0.3444904E+01)
 number of electron     146.0000001 magnetization      -0.1248914
 augmentation part       11.6732880 magnetization      -0.3935326

 Broyden mixing:
  rms(total) = 0.15412E+01    rms(broyden)= 0.15377E+01
  rms(prec ) = 0.17530E+01
  weight for this iteration     100.00

 eigenvalues of (default mixing * dielectric matrix)
  average eigenvalue GAMMA=   0.8665
  1.5189  0.8026  0.8026  0.3416

 Free energy of the ion-electron system (eV)
  ---------------------------------------------------
  alpha Z        PSCENC =        29.63686728
  Ewald energy   TEWEN  =     14347.58300099
  -Hartree energ DENC   =    -20188.20993760
  -exchange      EXHF   =         0.00000000
  -V(xc)+E(xc)   XCENC  =       526.09419519
  PAW double counting   =      8955.72643568    -9093.57278094
  entropy T*S    EENTRO =        -0.00188252
  eigenvalues    EBANDS =     -1885.15594635
  atomic energy  EATOM  =      6997.54116391
  Solvation  Ediel_sol  =        19.66011502
  ---------------------------------------------------
  free energy    TOTEN  =      -290.69876933 eV

  energy without entropy =     -290.69688681  energy(sigma->0) =     -290.69814182


--------------------------------------------------------------------------------------------------------




--------------------------------------- Iteration      1(  10)  ---------------------------------------


    POTLOK:  cpu time     11.9040: real time     11.9711
    SETDIJ:  cpu time      1.0407: real time      1.0431
    EDDIAG:  cpu time      2.9923: real time      3.1000
  RMM-DIIS:  cpu time      8.7414: real time      8.7992
    ORTHCH:  cpu time      0.2466: real time      0.2467
       DOS:  cpu time      0.0042: real time      0.0042
    CHARGE:  cpu time      0.8601: real time      0.8611
    MIXING:  cpu time      0.0136: real time      0.0136
    --------------------------------------------
      LOOP:  cpu time     25.8027: real time     26.0389

 eigenvalue-minimisations  :  2674
 total energy-change (2. order) : 0.1701419E+01  (-0.3717402E+00)
 number of electron     146.0000001 magnetization      -0.1026446
 augmentation part       11.8446811 magnetization      -0.4267860

 Broyden mixing:
  rms(total) = 0.10924E+01    rms(broyden)= 0.10920E+01
  rms(prec ) = 0.12351E+01
  weight for this iteration     100.00

 eigenvalues of (default mixing * dielectric matrix)
  average eigenvalue GAMMA=   1.0966
  2.2084  1.1586  0.8929  0.8929  0.3299

 Free energy of the ion-electron system (eV)
  ---------------------------------------------------
  alpha Z        PSCENC =        29.63686728
  Ewald energy   TEWEN  =     14347.58300099
  -Hartree energ DENC   =    -20255.02969953
  -exchange      EXHF   =         0.00000000
  -V(xc)+E(xc)   XCENC  =       528.83362527
  PAW double counting   =     10051.31389214   -10190.26799875
  entropy T*S    EENTRO =        -0.07273750
  eigenvalues    EBANDS =     -1826.27797012
  atomic energy  EATOM  =      6997.54116391
  Solvation  Ediel_sol  =        27.74250599
  ---------------------------------------------------
  free energy    TOTEN  =      -288.99735032 eV

  energy without entropy =     -288.92461282  energy(sigma->0) =     -288.97310449


--------------------------------------------------------------------------------------------------------




--------------------------------------- Iteration      1(  11)  ---------------------------------------


    POTLOK:  cpu time     12.0879: real time     12.1459
    SETDIJ:  cpu time      1.0426: real time      1.0432
    EDDIAG:  cpu time      2.1535: real time      2.1960
  RMM-DIIS:  cpu time      9.2198: real time      9.2939
    ORTHCH:  cpu time      0.2782: real time      0.2855
       DOS:  cpu time      0.0031: real time      0.0031
    CHARGE:  cpu time      0.9087: real time      0.9097
    MIXING:  cpu time      0.0155: real time      0.0158
    --------------------------------------------
      LOOP:  cpu time     25.7093: real time     25.8933

 eigenvalue-minimisations  :  2661
 total energy-change (2. order) : 0.3910223E+00  (-0.3367506E+00)
 number of electron     146.0000001 magnetization      -0.1620539
 augmentation part       11.9373198 magnetization      -0.2479019

 Broyden mixing:
  rms(total) = 0.11050E+01    rms(broyden)= 0.11006E+01
  rms(prec ) = 0.13088E+01
  weight for this iteration     100.00

 eigenvalues of (default mixing * dielectric matrix)
  average eigenvalue GAMMA=   1.1168
  2.9831  0.9682  0.9682  0.7278  0.7278  0.3253

 Free energy of the ion-electron system (eV)
  ---------------------------------------------------
  alpha Z        PSCENC =        29.63686728
  Ewald energy   TEWEN  =     14347.58300099
  -Hartree energ DENC   =    -20335.28942938
  -exchange      EXHF   =         0.00000000
  -V(xc)+E(xc)   XCENC  =       532.08836452
  PAW double counting   =     11779.97857124   -11918.30393530
  entropy T*S    EENTRO =        -0.04834473
  eigenvalues    EBANDS =     -1760.31118865
  atomic energy  EATOM  =      6997.54116391
  Solvation  Ediel_sol  =        38.51860213
  ---------------------------------------------------
  free energy    TOTEN  =      -288.60632800 eV

  energy without entropy =     -288.55798326  energy(sigma->0) =     -288.59021309


--------------------------------------------------------------------------------------------------------




--------------------------------------- Iteration      1(  12)  ---------------------------------------


    POTLOK:  cpu time     11.9924: real time     12.0493
    SETDIJ:  cpu time      1.0406: real time      1.0415
    EDDIAG:  cpu time      2.1557: real time      2.1583
  RMM-DIIS:  cpu time      9.6887: real time      9.9226
    ORTHCH:  cpu time      0.3711: real time      0.3723
       DOS:  cpu time      0.0031: real time      0.0031
    CHARGE:  cpu time      0.8978: real time      0.8985
    MIXING:  cpu time      0.0114: real time      0.0114
    --------------------------------------------
      LOOP:  cpu time     26.1608: real time     26.4570

 eigenvalue-minimisations  :  2760
 total energy-change (2. order) : 0.3950362E-02  (-0.7869884E-01)
 number of electron     146.0000001 magnetization      -0.2710003
 augmentation part       11.2456077 magnetization      -0.2802213

 Broyden mixing:
  rms(total) = 0.10316E+01    rms(broyden)= 0.10254E+01
  rms(prec ) = 0.12106E+01
  weight for this iteration     100.00

 eigenvalues of (default mixing * dielectric matrix)
  average eigenvalue GAMMA=   1.1251
  3.2431  1.0987  1.0987  0.9309  0.3258  0.5894  0.5894

 Free energy of the ion-electron system (eV)
  ---------------------------------------------------
  alpha Z        PSCENC =        29.63686728
  Ewald energy   TEWEN  =     14347.58300099
  -Hartree energ DENC   =    -20357.49629223
  -exchange      EXHF   =         0.00000000
  -V(xc)+E(xc)   XCENC  =       532.70284635
  PAW double counting   =     12288.98137605   -12427.49594927
  entropy T*S    EENTRO =         0.05738721
  eigenvalues    EBANDS =     -1740.30075159
  atomic energy  EATOM  =      6997.54116391
  Solvation  Ediel_sol  =        40.18797367
  ---------------------------------------------------
  free energy    TOTEN  =      -288.60237764 eV

  energy without entropy =     -288.65976485  energy(sigma->0) =     -288.62150671


--------------------------------------------------------------------------------------------------------




--------------------------------------- Iteration      1(  13)  ---------------------------------------


    POTLOK:  cpu time     11.8194: real time     11.8960
    SETDIJ:  cpu time      1.0416: real time      1.0428
    EDDIAG:  cpu time      2.1526: real time      2.1550
  RMM-DIIS:  cpu time      8.3552: real time      8.4510
    ORTHCH:  cpu time      0.2505: real time      0.2507
       DOS:  cpu time      0.0038: real time      0.0038
    CHARGE:  cpu time      0.9536: real time      0.9658
    MIXING:  cpu time      0.0127: real time      0.0129
    --------------------------------------------
      LOOP:  cpu time     24.5894: real time     24.7778

 eigenvalue-minimisations  :  2581
 total energy-change (2. order) :-0.5612443E+00  (-0.1938119E+00)
 number of electron     146.0000001 magnetization       0.2301652
 augmentation part       12.2458363 magnetization      -0.0347288

 Broyden mixing:
  rms(total) = 0.11036E+01    rms(broyden)= 0.10986E+01
  rms(prec ) = 0.13202E+01
  weight for this iteration     100.00

 eigenvalues of (default mixing * dielectric matrix)
  average eigenvalue GAMMA=   1.1785
  3.9456  1.3110  0.8267  0.8267  0.9035  0.9035  0.3207  0.3901

 Free energy of the ion-electron system (eV)
  ---------------------------------------------------
  alpha Z        PSCENC =        29.63686728
  Ewald energy   TEWEN  =     14347.58300099
  -Hartree energ DENC   =    -20342.05160423
  -exchange      EXHF   =         0.00000000
  -V(xc)+E(xc)   XCENC  =       532.60816240
  PAW double counting   =     12695.73934340   -12831.21487302
  entropy T*S    EENTRO =        -0.07846755
  eigenvalues    EBANDS =     -1759.91233066
  atomic energy  EATOM  =      6997.54116391
  Solvation  Ediel_sol  =        40.98511557
  ---------------------------------------------------
  free energy    TOTEN  =      -289.16362191 eV

  energy without entropy =     -289.08515436  energy(sigma->0) =     -289.13746606


--------------------------------------------------------------------------------------------------------




--------------------------------------- Iteration      1(  14)  ---------------------------------------


    POTLOK:  cpu time     12.9857: real time     13.1711
    SETDIJ:  cpu time      1.0436: real time      1.0443
    EDDIAG:  cpu time      2.1738: real time      2.1759
  RMM-DIIS:  cpu time      8.1712: real time      8.1912
    ORTHCH:  cpu time      0.2464: real time      0.2465
       DOS:  cpu time      0.0033: real time      0.0033
[...]
      4.566270  8.685272  5.794806            0           0           0  
      3.857652  9.942189  5.717977            0           0           0  
      4.800563 10.931483  5.676609            0           0           0  
      3.972075  7.434468  5.906537            0           0           0  
      4.650378  6.221642  5.996819            0           0           0  
      4.009414  4.928513  6.003944            0           0           0  
      5.003447  3.989623  5.999723            0           0           0  
      6.258696  4.701761  5.993644            0           0           0  
     10.843874  7.598740  5.894705            0           0           0  
     10.247065  6.342062  5.833538            0           0           0  
     10.963358  5.084669  5.843329            0           0           0  
     10.021151  4.094090  5.841093            0           0           0  
      8.729749  4.746921  5.835766            0           0           0  
      7.505540  4.089366  5.914620            0           0           0  
      7.562244  7.619168  7.872608     0.232460   -0.257622    0.224611  
      8.804628  8.988219  5.915579            0           0           0  
      5.917434  8.926758  5.775642            0           0           0  
      6.014374  6.055887  6.022804            0           0           0  
      8.899926  6.103894  5.790773            0           0           0  
      7.196573  7.601382  3.965426            0           0           0  
      6.795541  8.578024  8.371316     0.098204   -0.150012   -0.347567  
      8.299474  6.875628  8.473745     0.115474   -0.024491    0.805871  
      7.392426  7.526118  5.840483            0           0           0  
 
   9 f  =    6.134155 THz    38.542031 2PiTHz  204.613379 cm-1    25.368814 meV
             X         Y         Z           dx          dy          dz
      9.914854 12.131198  5.843404            0           0           0  
     11.889768 10.254418  5.922312            0           0           0  
      7.294519 12.037547  5.740611            0           0           0  
      2.774848 10.035709  5.707259            0           0           0  
      4.653396 12.007076  5.625686            0           0           0  
      2.882559  7.395187  5.901614            0           0           0  
      2.933067  4.778260  5.987725            0           0           0  
      4.915044  2.906403  5.980954            0           0           0  
     11.933204  7.634527  5.916655            0           0           0  
     12.046336  4.992458  5.854922            0           0           0  
     10.166840  3.016805  5.851724            0           0           0  
      7.522036  2.999097  5.916711            0           0           0  
      6.921237  8.626941  9.352547     0.043576   -0.025159    0.188622  
      9.821621 11.049051  5.877903            0           0           0  
      8.564607 10.340533  5.866447            0           0           0  
     10.170431  8.815491  5.926232            0           0           0  
     10.812763 10.107171  5.917210            0           0           0  
      7.314631 10.948164  5.777173            0           0           0  
      6.093287 10.287666  5.728115            0           0           0  
      4.566270  8.685272  5.794806            0           0           0  
      3.857652  9.942189  5.717977            0           0           0  
      4.800563 10.931483  5.676609            0           0           0  
      3.972075  7.434468  5.906537            0           0           0  
      4.650378  6.221642  5.996819            0           0           0  
      4.009414  4.928513  6.003944            0           0           0  
      5.003447  3.989623  5.999723            0           0           0  
      6.258696  4.701761  5.993644            0           0           0  
     10.843874  7.598740  5.894705            0           0           0  
     10.247065  6.342062  5.833538            0           0           0  
     10.963358  5.084669  5.843329            0           0           0  
     10.021151  4.094090  5.841093            0           0           0  
      8.729749  4.746921  5.835766            0           0           0  
      7.505540  4.089366  5.914620            0           0           0  
      7.562244  7.619168  7.872608    -0.118159    0.139755    0.387913  
      8.804628  8.988219  5.915579            0           0           0  
      5.917434  8.926758  5.775642            0           0           0  
      6.014374  6.055887  6.022804            0           0           0  
      8.899926  6.103894  5.790773            0           0           0  
      7.196573  7.601382  3.965426            0           0           0  
      6.795541  8.578024  8.371316    -0.021849    0.141234    0.764027  
      8.299474  6.875628  8.473745    -0.154207    0.085894    0.377626  
      7.392426  7.526118  5.840483            0           0           0  
 
  10 f  =    3.446926 THz    21.657672 2PiTHz  114.977059 cm-1    14.255332 meV
             X         Y         Z           dx          dy          dz
      9.914854 12.131198  5.843404            0           0           0  
     11.889768 10.254418  5.922312            0           0           0  
      7.294519 12.037547  5.740611            0           0           0  
      2.774848 10.035709  5.707259            0           0           0  
      4.653396 12.007076  5.625686            0           0           0  
      2.882559  7.395187  5.901614            0           0           0  
      2.933067  4.778260  5.987725            0           0           0  
      4.915044  2.906403  5.980954            0           0           0  
     11.933204  7.634527  5.916655            0           0           0  
     12.046336  4.992458  5.854922            0           0           0  
     10.166840  3.016805  5.851724            0           0           0  
      7.522036  2.999097  5.916711            0           0           0  
      6.921237  8.626941  9.352547     0.157267   -0.107804    0.080826  
      9.821621 11.049051  5.877903            0           0           0  
      8.564607 10.340533  5.866447            0           0           0  
     10.170431  8.815491  5.926232            0           0           0  
     10.812763 10.107171  5.917210            0           0           0  
      7.314631 10.948164  5.777173            0           0           0  
      6.093287 10.287666  5.728115            0           0           0  
      4.566270  8.685272  5.794806            0           0           0  
      3.857652  9.942189  5.717977            0           0           0  
      4.800563 10.931483  5.676609            0           0           0  
      3.972075  7.434468  5.906537            0           0           0  
      4.650378  6.221642  5.996819            0           0           0  
      4.009414  4.928513  6.003944            0           0           0  
      5.003447  3.989623  5.999723            0           0           0  
      6.258696  4.701761  5.993644            0           0           0  
     10.843874  7.598740  5.894705            0           0           0  
     10.247065  6.342062  5.833538            0           0           0  
     10.963358  5.084669  5.843329            0           0           0  
     10.021151  4.094090  5.841093            0           0           0  
      8.729749  4.746921  5.835766            0           0           0  
      7.505540  4.089366  5.914620            0           0           0  
      7.562244  7.619168  7.872608     0.336960   -0.182928    0.035614  
      8.804628  8.988219  5.915579            0           0           0  
      5.917434  8.926758  5.775642            0           0           0  
      6.014374  6.055887  6.022804            0           0           0  
      8.899926  6.103894  5.790773            0           0           0  
      7.196573  7.601382  3.965426            0           0           0  
      6.795541  8.578024  8.371316     0.451962   -0.309238    0.337706  
      8.299474  6.875628  8.473745     0.544416   -0.248455   -0.191774  
      7.392426  7.526118  5.840483            0           0           0  
 
  11 f  =    1.252190 THz     7.867739 2PiTHz   41.768547 cm-1     5.178638 meV
             X         Y         Z           dx          dy          dz
      9.914854 12.131198  5.843404            0           0           0  
     11.889768 10.254418  5.922312            0           0           0  
      7.294519 12.037547  5.740611            0           0           0  
      2.774848 10.035709  5.707259            0           0           0  
      4.653396 12.007076  5.625686            0           0           0  
      2.882559  7.395187  5.901614            0           0           0  
      2.933067  4.778260  5.987725            0           0           0  
      4.915044  2.906403  5.980954            0           0           0  
     11.933204  7.634527  5.916655            0           0           0  
     12.046336  4.992458  5.854922            0           0           0  
     10.166840  3.016805  5.851724            0           0           0  
      7.522036  2.999097  5.916711            0           0           0  
      6.921237  8.626941  9.352547     0.035671    0.108754   -0.019977  
      9.821621 11.049051  5.877903            0           0           0  
      8.564607 10.340533  5.866447            0           0           0  
     10.170431  8.815491  5.926232            0           0           0  
     10.812763 10.107171  5.917210            0           0           0  
      7.314631 10.948164  5.777173            0           0           0  
      6.093287 10.287666  5.728115            0           0           0  
      4.566270  8.685272  5.794806            0           0           0  
      3.857652  9.942189  5.717977            0           0           0  
      4.800563 10.931483  5.676609            0           0           0  
      3.972075  7.434468  5.906537            0           0           0  
      4.650378  6.221642  5.996819            0           0           0  
      4.009414  4.928513  6.003944            0           0           0  
      5.003447  3.989623  5.999723            0           0           0  
      6.258696  4.701761  5.993644            0           0           0  
     10.843874  7.598740  5.894705            0           0           0  
     10.247065  6.342062  5.833538            0           0           0  
     10.963358  5.084669  5.843329            0           0           0  
     10.021151  4.094090  5.841093            0           0           0  
      8.729749  4.746921  5.835766            0           0           0  
      7.505540  4.089366  5.914620            0           0           0  
      7.562244  7.619168  7.872608     0.192049    0.342117   -0.012652  
      8.804628  8.988219  5.915579            0           0           0  
      5.917434  8.926758  5.775642            0           0           0  
      6.014374  6.055887  6.022804            0           0           0  
      8.899926  6.103894  5.790773            0           0           0  
      7.196573  7.601382  3.965426            0           0           0  
      6.795541  8.578024  8.371316     0.072144    0.310123   -0.064763  
      8.299474  6.875628  8.473745     0.492613    0.695483    0.021769  
      7.392426  7.526118  5.840483            0           0           0  
 
  12 f/i=    2.413545 THz    15.164750 2PiTHz   80.507195 cm-1     9.981616 meV
             X         Y         Z           dx          dy          dz
      9.914854 12.131198  5.843404            0           0           0  
     11.889768 10.254418  5.922312            0           0           0  
      7.294519 12.037547  5.740611            0           0           0  
      2.774848 10.035709  5.707259            0           0           0  
      4.653396 12.007076  5.625686            0           0           0  
      2.882559  7.395187  5.901614            0           0           0  
      2.933067  4.778260  5.987725            0           0           0  
      4.915044  2.906403  5.980954            0           0           0  
     11.933204  7.634527  5.916655            0           0           0  
     12.046336  4.992458  5.854922            0           0           0  
     10.166840  3.016805  5.851724            0           0           0  
      7.522036  2.999097  5.916711            0           0           0  
      6.921237  8.626941  9.352547     0.155447    0.145298   -0.027508  
      9.821621 11.049051  5.877903            0           0           0  
      8.564607 10.340533  5.866447            0           0           0  
     10.170431  8.815491  5.926232            0           0           0  
     10.812763 10.107171  5.917210            0           0           0  
      7.314631 10.948164  5.777173            0           0           0  
      6.093287 10.287666  5.728115            0           0           0  
      4.566270  8.685272  5.794806            0           0           0  
      3.857652  9.942189  5.717977            0           0           0  
      4.800563 10.931483  5.676609            0           0           0  
      3.972075  7.434468  5.906537            0           0           0  
      4.650378  6.221642  5.996819            0           0           0  
      4.009414  4.928513  6.003944            0           0           0  
      5.003447  3.989623  5.999723            0           0           0  
      6.258696  4.701761  5.993644            0           0           0  
     10.843874  7.598740  5.894705            0           0           0  
     10.247065  6.342062  5.833538            0           0           0  
     10.963358  5.084669  5.843329            0           0           0  
     10.021151  4.094090  5.841093            0           0           0  
      8.729749  4.746921  5.835766            0           0           0  
      7.505540  4.089366  5.914620            0           0           0  
      7.562244  7.619168  7.872608     0.090757    0.086760   -0.028860  
      8.804628  8.988219  5.915579            0           0           0  
      5.917434  8.926758  5.775642            0           0           0  
      6.014374  6.055887  6.022804            0           0           0  
      8.899926  6.103894  5.790773            0           0           0  
      7.196573  7.601382  3.965426            0           0           0  
      6.795541  8.578024  8.371316     0.658438    0.592915   -0.114492  
      8.299474  6.875628  8.473745    -0.280570   -0.245012    0.020563  
      7.392426  7.526118  5.840483            0           0           0  
 
 Finite differences POTIM=  2.000000000000000E-002
 writing wavefunctions
     LOOP+:  cpu time    192.5656: real time    196.1192
    4ORBIT:  cpu time      0.0000: real time      0.0000



 total charge

# of ion       s       p       d       tot
------------------------------------------
    1        0.638   0.046   0.000   0.684
    2        0.637   0.046   0.000   0.683
    3        0.640   0.046   0.000   0.685
    4        0.637   0.046   0.000   0.683
    5        0.637   0.046   0.000   0.684
    6        0.639   0.046   0.000   0.685
    7        0.638   0.046   0.000   0.683
    8        0.637   0.046   0.000   0.683
    9        0.640   0.046   0.000   0.685
   10        0.638   0.046   0.000   0.683
   11        0.637   0.046   0.000   0.683
   12        0.640   0.046   0.000   0.685
   13        0.568   0.109   0.000   0.677
   14        0.874   1.776   0.000   2.650
   15        0.870   1.764   0.000   2.634
   16        0.870   1.764   0.000   2.634
   17        0.874   1.776   0.000   2.650
   18        0.872   1.792   0.000   2.664
   19        0.871   1.766   0.000   2.637
   20        0.871   1.766   0.000   2.637
   21        0.874   1.774   0.000   2.648
   22        0.874   1.774   0.000   2.648
   23        0.872   1.793   0.000   2.665
   24        0.870   1.764   0.000   2.634
   25        0.874   1.776   0.000   2.650
   26        0.874   1.776   0.000   2.650
   27        0.870   1.764   0.000   2.634
   28        0.872   1.791   0.000   2.663
   29        0.871   1.766   0.000   2.637
   30        0.874   1.774   0.000   2.647
   31        0.874   1.774   0.000   2.647
   32        0.871   1.767   0.000   2.638
   33        0.873   1.790   0.000   2.663
   34        0.882   1.651   0.000   2.533
   35        1.242   2.594   0.000   3.836
   36        1.245   2.594   0.000   3.839
   37        1.242   2.595   0.000   3.837
   38        1.247   2.602   0.000   3.849
   39        1.620   3.203   0.000   4.823
   40        1.598   3.629   0.000   5.226
   41        1.625   3.560   0.000   5.185
   42        0.419   0.606   8.916   9.941
--------------------------------------------------
tot         36.793  59.180   8.916 104.889



 magnetization (x)

# of ion       s       p       d       tot
------------------------------------------
    1       -0.000  -0.000   0.000  -0.000
    2       -0.000  -0.000   0.000  -0.001
    3        0.000  -0.000   0.000   0.000
    4       -0.001   0.000   0.000  -0.001
    5       -0.001   0.000   0.000  -0.001
    6        0.000  -0.000   0.000   0.000
    7       -0.000  -0.000   0.000  -0.000
    8       -0.000  -0.000   0.000  -0.000
    9        0.000  -0.000   0.000   0.000
   10       -0.001  -0.000   0.000  -0.001
   11       -0.001  -0.000   0.000  -0.001
   12        0.000  -0.000   0.000   0.000
   13       -0.001   0.000   0.000  -0.001
   14       -0.001  -0.003   0.000  -0.004
   15       -0.001  -0.000   0.000  -0.001
   16       -0.001  -0.001   0.000  -0.002
   17       -0.001  -0.003   0.000  -0.004
   18       -0.000  -0.008   0.000  -0.008
   19       -0.001   0.000   0.000  -0.001
   20       -0.001  -0.000   0.000  -0.001
   21       -0.001  -0.000   0.000  -0.001
   22       -0.001  -0.001   0.000  -0.001
   23       -0.000  -0.008   0.000  -0.008
   24       -0.001  -0.000   0.000  -0.001
   25       -0.001  -0.004   0.000  -0.005
   26       -0.001  -0.003   0.000  -0.004
   27       -0.001  -0.001   0.000  -0.002
   28       -0.000  -0.005   0.000  -0.005
   29       -0.001  -0.000   0.000  -0.002
   30       -0.001  -0.003   0.000  -0.004
   31       -0.001  -0.003   0.000  -0.004
   32       -0.001  -0.000   0.000  -0.002
   33       -0.000  -0.005   0.000  -0.005
   34       -0.007  -0.017   0.000  -0.024
   35       -0.017  -0.077   0.000  -0.094
   36       -0.013  -0.057   0.000  -0.071
   37       -0.017  -0.080   0.000  -0.097
   38       -0.019  -0.091   0.000  -0.110
   39        0.010   0.737   0.000   0.747
   40       -0.001  -0.002   0.000  -0.003
   41       -0.000  -0.006   0.000  -0.006
   42        0.005  -0.002  -0.400  -0.398
--------------------------------------------------
tot         -0.083   0.357  -0.400  -0.126
 

 total amount of memory used by VASP MPI-rank0   142806. kBytes
=======================================================================

   base      :      30000. kBytes
   nonlr-proj:       4869. kBytes
   fftplans  :      38323. kBytes
   grid      :      33608. kBytes
   one-center:         93. kBytes
   wavefun   :      35913. kBytes
 
  
  
 General timing and accounting informations for this job:
 ========================================================
  
                  Total CPU time used (sec):     6414.172
                            User time (sec):     6151.435
                          System time (sec):      262.737
                         Elapsed time (sec):     6485.685
  
                   Maximum memory used (kb):      337184.
                   Average memory used (kb):          N/A
  
                          Minor page faults:      6614027
                          Major page faults:           32
                 Voluntary context switches:         4256
